/*--------------------------------*- C++ -*----------------------------------*\
  =========                 |
  \\      /  F ield         | OpenFOAM: The Open Source CFD Toolbox
   \\    /   O peration     | Website:  https://openfoam.org
    \\  /    A nd           | Version:  9
     \\/     M anipulation  |
\*---------------------------------------------------------------------------*/
FoamFile
{
    format      ascii;
    class       volScalarField;
    location    "1";
    object      p;
}
// * * * * * * * * * * * * * * * * * * * * * * * * * * * * * * * * * * * * * //

dimensions      [0 2 -2 0 0 0 0];

internalField   nonuniform List<scalar> 
25
(
1.73346e-15
2.19267e-15
2.45148e-15
2.19267e-15
1.73346e-15
2.19267e-15
3.46692e-15
4.90296e-15
3.46692e-15
2.19267e-15
2.45148e-15
4.90296e-15
0.00153126
4.90296e-15
2.45148e-15
2.19267e-15
3.46692e-15
4.90296e-15
3.46692e-15
2.19267e-15
1.73346e-15
2.19267e-15
2.45148e-15
2.19267e-15
1.73346e-15
)
;

boundaryField
{
    movingWall
    {
        type            zeroGradient;
    }
    fixedWalls
    {
        type            zeroGradient;
    }
    frontAndBack
    {
        type            empty;
    }
}


// ************************************************************************* //
