/*--------------------------------*- C++ -*----------------------------------*\
  =========                 |
  \\      /  F ield         | OpenFOAM: The Open Source CFD Toolbox
   \\    /   O peration     | Website:  https://openfoam.org
    \\  /    A nd           | Version:  9
     \\/     M anipulation  |
\*---------------------------------------------------------------------------*/
FoamFile
{
    format      ascii;
    class       volVectorField;
    location    "1";
    object      U;
}
// * * * * * * * * * * * * * * * * * * * * * * * * * * * * * * * * * * * * * //

dimensions      [0 1 -1 0 0 0 0];

internalField   nonuniform List<vector> 
25
(
(9.81532e-14 9.81532e-14 0)
(1.79505e-14 1.4149e-13 0)
(0 1.83861e-13 0)
(-1.79505e-14 1.4149e-13 0)
(-9.81532e-14 9.81532e-14 0)
(1.4149e-13 1.79505e-14 0)
(6.77572e-14 6.77572e-14 0)
(4.81482e-29 0.0382815 0)
(-6.77572e-14 6.77572e-14 0)
(-1.4149e-13 1.79505e-14 0)
(1.83861e-13 0 0)
(0.0382815 0 0)
(4.63221e-17 6.61744e-18 0)
(-0.0382815 0 0)
(-1.83861e-13 4.81482e-29 0)
(1.4149e-13 -1.79505e-14 0)
(6.77572e-14 -6.77572e-14 0)
(4.81482e-29 -0.0382815 0)
(-6.77572e-14 -6.77572e-14 0)
(-1.4149e-13 -1.79505e-14 0)
(9.81532e-14 -9.81532e-14 0)
(1.79505e-14 -1.4149e-13 0)
(0 -1.83861e-13 0)
(-1.79505e-14 -1.4149e-13 0)
(-9.81532e-14 -9.81532e-14 0)
)
;

boundaryField
{
    movingWall
    {
        type            fixedValue;
        value           uniform (1 0 0);
    }
    fixedWalls
    {
        type            fixedValue;
        value           uniform (0 0 0);
    }
    frontAndBack
    {
        type            empty;
    }
}


// ************************************************************************* //
