/*--------------------------------*- C++ -*----------------------------------*\
  =========                 |
  \\      /  F ield         | OpenFOAM: The Open Source CFD Toolbox
   \\    /   O peration     | Website:  https://openfoam.org
    \\  /    A nd           | Version:  9
     \\/     M anipulation  |
\*---------------------------------------------------------------------------*/
FoamFile
{
    format      ascii;
    class       volVectorField;
    location    "0.6";
    object      U;
}
// * * * * * * * * * * * * * * * * * * * * * * * * * * * * * * * * * * * * * //

dimensions      [0 1 -1 0 0 0 0];

internalField   nonuniform List<vector> 
25
(
(-37.6727 -37.6727 0)
(-6.88969 -54.3059 0)
(0 -70.5687 0)
(6.88969 -54.3059 0)
(37.6727 -37.6727 0)
(-54.3059 -6.88969 0)
(-26.0063 -26.0063 0)
(0 -1.4693e+13 0)
(26.0063 -26.0063 0)
(54.3059 -6.88969 0)
(-70.5687 -6.77626e-15 0)
(-1.4693e+13 -1.35525e-14 0)
(-0.0149012 -0.00372529 0)
(1.4693e+13 0 0)
(70.5687 -2.03288e-14 0)
(-54.3059 6.88969 0)
(-26.0063 26.0063 0)
(-2.71051e-14 1.4693e+13 0)
(26.0063 26.0063 0)
(54.3059 6.88969 0)
(-37.6727 37.6727 0)
(-6.88969 54.3059 0)
(6.77626e-15 70.5687 0)
(6.88969 54.3059 0)
(37.6727 37.6727 0)
)
;

boundaryField
{
    movingWall
    {
        type            fixedValue;
        value           uniform (1 0 0);
    }
    fixedWalls
    {
        type            fixedValue;
        value           uniform (0 0 0);
    }
    frontAndBack
    {
        type            empty;
    }
}


// ************************************************************************* //
