/*--------------------------------*- C++ -*----------------------------------*\
  =========                 |
  \\      /  F ield         | OpenFOAM: The Open Source CFD Toolbox
   \\    /   O peration     | Website:  https://openfoam.org
    \\  /    A nd           | Version:  9
     \\/     M anipulation  |
\*---------------------------------------------------------------------------*/
FoamFile
{
    format      ascii;
    class       volVectorField;
    location    "0.25";
    object      U;
}
// * * * * * * * * * * * * * * * * * * * * * * * * * * * * * * * * * * * * * //

dimensions      [0 1 -1 0 0 0 0];

internalField   nonuniform List<vector> 
25
(
(64.0926 64.0926 0)
(11.7214 92.3907 0)
(-1.35525e-14 120.059 0)
(-11.7214 92.3907 0)
(-64.0926 64.0926 0)
(92.3907 11.7214 0)
(44.2445 44.2445 0)
(2.71051e-14 2.49973e+13 0)
(-44.2445 44.2445 0)
(-92.3907 11.7214 0)
(120.059 0 0)
(2.49973e+13 0 0)
(0.026077 0.00745058 0)
(-2.49973e+13 0 0)
(-120.059 2.71051e-14 0)
(92.3907 -11.7214 0)
(44.2445 -44.2445 0)
(0 -2.49973e+13 0)
(-44.2445 -44.2445 0)
(-92.3907 -11.7214 0)
(64.0926 -64.0926 0)
(11.7214 -92.3907 0)
(0 -120.059 0)
(-11.7214 -92.3907 0)
(-64.0926 -64.0926 0)
)
;

boundaryField
{
    movingWall
    {
        type            fixedValue;
        value           uniform (1 0 0);
    }
    fixedWalls
    {
        type            fixedValue;
        value           uniform (0 0 0);
    }
    frontAndBack
    {
        type            empty;
    }
}


// ************************************************************************* //
