/*--------------------------------*- C++ -*----------------------------------*\
  =========                 |
  \\      /  F ield         | OpenFOAM: The Open Source CFD Toolbox
   \\    /   O peration     | Website:  https://openfoam.org
    \\  /    A nd           | Version:  9
     \\/     M anipulation  |
\*---------------------------------------------------------------------------*/
FoamFile
{
    format      ascii;
    class       volVectorField;
    location    "0.85";
    object      U;
}
// * * * * * * * * * * * * * * * * * * * * * * * * * * * * * * * * * * * * * //

dimensions      [0 1 -1 0 0 0 0];

internalField   nonuniform List<vector> 
25
(
(-51.852 -51.852 0)
(-9.48285 -74.7457 0)
(0 -97.1294 0)
(9.48285 -74.7457 0)
(51.852 -51.852 0)
(-74.7457 -9.48285 0)
(-35.7946 -35.7946 0)
(-2.71051e-14 -2.02232e+13 0)
(35.7946 -35.7946 0)
(74.7457 -9.48285 0)
(-97.1294 0 0)
(-2.02232e+13 0 0)
(-0.0186265 -0.00745058 0)
(2.02232e+13 0 0)
(97.1294 -2.71051e-14 0)
(-74.7457 9.48285 0)
(-35.7946 35.7946 0)
(-2.71051e-14 2.02232e+13 0)
(35.7946 35.7946 0)
(74.7457 9.48285 0)
(-51.852 51.852 0)
(-9.48285 74.7457 0)
(0 97.1294 0)
(9.48285 74.7457 0)
(51.852 51.852 0)
)
;

boundaryField
{
    movingWall
    {
        type            fixedValue;
        value           uniform (1 0 0);
    }
    fixedWalls
    {
        type            fixedValue;
        value           uniform (0 0 0);
    }
    frontAndBack
    {
        type            empty;
    }
}


// ************************************************************************* //
