/*--------------------------------*- C++ -*----------------------------------*\
  =========                 |
  \\      /  F ield         | OpenFOAM: The Open Source CFD Toolbox
   \\    /   O peration     | Website:  https://openfoam.org
    \\  /    A nd           | Version:  9
     \\/     M anipulation  |
\*---------------------------------------------------------------------------*/
FoamFile
{
    format      ascii;
    class       volVectorField;
    location    "0.45";
    object      U;
}
// * * * * * * * * * * * * * * * * * * * * * * * * * * * * * * * * * * * * * //

dimensions      [0 1 -1 0 0 0 0];

internalField   nonuniform List<vector> 
25
(
(19.8057 19.8057 0)
(3.62213 28.5503 0)
(-3.38813e-15 37.1001 0)
(-3.62213 28.5503 0)
(-19.8057 19.8057 0)
(28.5503 3.62213 0)
(13.6723 13.6723 0)
(0 7.72459e+12 0)
(-13.6723 13.6723 0)
(-28.5503 3.62213 0)
(37.1001 3.38813e-15 0)
(7.72459e+12 0 0)
(0.0083819 0.00279397 0)
(-7.72459e+12 0 0)
(-37.1001 1.01644e-14 0)
(28.5503 -3.62213 0)
(13.6723 -13.6723 0)
(1.35525e-14 -7.72459e+12 0)
(-13.6723 -13.6723 0)
(-28.5503 -3.62213 0)
(19.8057 -19.8057 0)
(3.62213 -28.5503 0)
(0 -37.1001 0)
(-3.62213 -28.5503 0)
(-19.8057 -19.8057 0)
)
;

boundaryField
{
    movingWall
    {
        type            fixedValue;
        value           uniform (1 0 0);
    }
    fixedWalls
    {
        type            fixedValue;
        value           uniform (0 0 0);
    }
    frontAndBack
    {
        type            empty;
    }
}


// ************************************************************************* //
