/*--------------------------------*- C++ -*----------------------------------*\
  =========                 |
  \\      /  F ield         | OpenFOAM: The Open Source CFD Toolbox
   \\    /   O peration     | Website:  https://openfoam.org
    \\  /    A nd           | Version:  9
     \\/     M anipulation  |
\*---------------------------------------------------------------------------*/
FoamFile
{
    format      ascii;
    class       volScalarField;
    location    "0.5";
    object      p;
}
// * * * * * * * * * * * * * * * * * * * * * * * * * * * * * * * * * * * * * //

dimensions      [0 2 -2 0 0 0 0];

internalField   nonuniform List<scalar> 
25
(
6.41295e-16
8.11182e-16
9.06929e-16
8.11182e-16
6.41295e-16
8.11182e-16
1.28259e-15
1.81386e-15
1.28259e-15
8.11182e-16
9.06929e-16
1.81386e-15
0.000566493
1.81386e-15
9.06929e-16
8.11182e-16
1.28259e-15
1.81386e-15
1.28259e-15
8.11182e-16
6.41295e-16
8.11182e-16
9.06929e-16
8.11182e-16
6.41295e-16
)
;

boundaryField
{
    movingWall
    {
        type            zeroGradient;
    }
    fixedWalls
    {
        type            zeroGradient;
    }
    frontAndBack
    {
        type            empty;
    }
}


// ************************************************************************* //
