/*--------------------------------*- C++ -*----------------------------------*\
  =========                 |
  \\      /  F ield         | OpenFOAM: The Open Source CFD Toolbox
   \\    /   O peration     | Website:  https://openfoam.org
    \\  /    A nd           | Version:  9
     \\/     M anipulation  |
\*---------------------------------------------------------------------------*/
FoamFile
{
    format      ascii;
    class       volVectorField;
    location    "0.5";
    object      U;
}
// * * * * * * * * * * * * * * * * * * * * * * * * * * * * * * * * * * * * * //

dimensions      [0 1 -1 0 0 0 0];

internalField   nonuniform List<vector> 
25
(
(3.63119e-14 3.63119e-14 0)
(6.64083e-15 5.23443e-14 0)
(-6.01853e-30 6.80197e-14 0)
(-6.64083e-15 5.23443e-14 0)
(-3.63119e-14 3.63119e-14 0)
(5.23443e-14 6.64083e-15 0)
(2.50669e-14 2.50669e-14 0)
(1.20371e-29 0.0141623 0)
(-2.50669e-14 2.50669e-14 0)
(-5.23443e-14 6.64083e-15 0)
(6.80197e-14 0 0)
(0.0141623 0 0)
(1.65436e-17 1.65436e-18 0)
(-0.0141623 0 0)
(-6.80197e-14 1.80556e-29 0)
(5.23443e-14 -6.64083e-15 0)
(2.50669e-14 -2.50669e-14 0)
(2.40741e-29 -0.0141623 0)
(-2.50669e-14 -2.50669e-14 0)
(-5.23443e-14 -6.64083e-15 0)
(3.63119e-14 -3.63119e-14 0)
(6.64083e-15 -5.23443e-14 0)
(0 -6.80197e-14 0)
(-6.64083e-15 -5.23443e-14 0)
(-3.63119e-14 -3.63119e-14 0)
)
;

boundaryField
{
    movingWall
    {
        type            fixedValue;
        value           uniform (1 0 0);
    }
    fixedWalls
    {
        type            fixedValue;
        value           uniform (0 0 0);
    }
    frontAndBack
    {
        type            empty;
    }
}


// ************************************************************************* //
