/*--------------------------------*- C++ -*----------------------------------*\
  =========                 |
  \\      /  F ield         | OpenFOAM: The Open Source CFD Toolbox
   \\    /   O peration     | Website:  https://openfoam.org
    \\  /    A nd           | Version:  9
     \\/     M anipulation  |
\*---------------------------------------------------------------------------*/
FoamFile
{
    format      ascii;
    class       volVectorField;
    location    "0.2";
    object      U;
}
// * * * * * * * * * * * * * * * * * * * * * * * * * * * * * * * * * * * * * //

dimensions      [0 1 -1 0 0 0 0];

internalField   nonuniform List<vector> 
25
(
(60.9557 60.9557 0)
(11.1478 87.8688 0)
(0 114.182 0)
(-11.1478 87.8688 0)
(-60.9557 60.9557 0)
(87.8688 11.1478 0)
(42.079 42.079 0)
(2.71051e-14 2.37738e+13 0)
(-42.079 42.079 0)
(-87.8688 11.1478 0)
(114.182 0 0)
(2.37738e+13 2.71051e-14 0)
(0.026077 0 0)
(-2.37738e+13 0 0)
(-114.182 4.06576e-14 0)
(87.8688 -11.1478 0)
(42.079 -42.079 0)
(2.71051e-14 -2.37738e+13 0)
(-42.079 -42.079 0)
(-87.8688 -11.1478 0)
(60.9557 -60.9557 0)
(11.1478 -87.8688 0)
(0 -114.182 0)
(-11.1478 -87.8688 0)
(-60.9557 -60.9557 0)
)
;

boundaryField
{
    movingWall
    {
        type            fixedValue;
        value           uniform (1 0 0);
    }
    fixedWalls
    {
        type            fixedValue;
        value           uniform (0 0 0);
    }
    frontAndBack
    {
        type            empty;
    }
}


// ************************************************************************* //
